<?xml version="1.0" encoding="UTF-8"?>

<!-- generated on Rab 04 Jul 2018 03:50:50  GMT by SUMO gui Version 0.32.0
<?xml version="1.0" encoding="UTF-8"?>

<configuration xmlns:xsi="http://www.w3.org/2001/XMLSchema-instance" xsi:noNamespaceSchemaLocation="http://sumo.dlr.de/xsd/sumoConfiguration.xsd">

    <input>
        <net-file value="data/cross.net.xml"/>
        <route-files value="data/cross.rou.xml"/>
        <additional-files value="data/cross.det.xml"/>
    </input>

    <output>
        <full-output value="output.xls"/>
        <tripinfo-output value="tripinfo.xml"/>
    </output>

    <time>
        <begin value="0"/>
    </time>

    <report>
        <verbose value="true"/>
        <no-step-log value="true"/>
    </report>

    <traci_server>
        <remote-port value="50087"/>
    </traci_server>

</configuration>
-->

<tripinfos xmlns:xsi="http://www.w3.org/2001/XMLSchema-instance" xsi:noNamespaceSchemaLocation="http://sumo.dlr.de/xsd/tripinfo_file.xsd">
    <tripinfo id="right_0" depart="7.00" departLane="12_1" departPos="5.00" departSpeed="0.00" departDelay="0.00" arrival="25.00" arrivalLane="34_1" arrivalPos="10.00" arrivalSpeed="16.84" duration="18.00" routeLength="155.20" waitSteps="0" timeLoss="8.54" rerouteNo="0" devices="tripinfo_right_0" vType="type4" speedFactor="1.00" vaporized=""/>
    <tripinfo id="right_1" depart="11.00" departLane="12_1" departPos="4.10" departSpeed="0.00" departDelay="2.00" arrival="29.00" arrivalLane="34_1" arrivalPos="10.00" arrivalSpeed="17.35" duration="18.00" routeLength="156.10" waitSteps="0" timeLoss="8.56" rerouteNo="0" devices="tripinfo_right_1" vType="type5" speedFactor="1.00" vaporized=""/>
    <tripinfo id="right_2" depart="16.00" departLane="12_1" departPos="5.00" departSpeed="0.00" departDelay="1.00" arrival="38.00" arrivalLane="34_0" arrivalPos="10.00" arrivalSpeed="10.74" duration="22.00" routeLength="155.20" waitSteps="0" timeLoss="7.86" rerouteNo="0" devices="tripinfo_right_2" vType="type2" speedFactor="1.00" vaporized=""/>
    <tripinfo id="right_3" depart="22.00" departLane="12_0" departPos="5.00" departSpeed="0.00" departDelay="0.00" arrival="41.00" arrivalLane="34_0" arrivalPos="10.00" arrivalSpeed="16.79" duration="19.00" routeLength="155.20" waitSteps="0" timeLoss="9.12" rerouteNo="0" devices="tripinfo_right_3" vType="type4" speedFactor="1.00" vaporized=""/>
    <tripinfo id="right_4" depart="37.00" departLane="12_1" departPos="5.00" departSpeed="0.00" departDelay="0.00" arrival="56.00" arrivalLane="34_1" arrivalPos="10.00" arrivalSpeed="15.77" duration="19.00" routeLength="155.20" waitSteps="0" timeLoss="8.40" rerouteNo="0" devices="tripinfo_right_4" vType="type3" speedFactor="1.00" vaporized=""/>
    <tripinfo id="right_5" depart="49.00" departLane="12_1" departPos="4.10" departSpeed="0.00" departDelay="0.00" arrival="67.00" arrivalLane="34_1" arrivalPos="10.00" arrivalSpeed="17.54" duration="18.00" routeLength="156.10" waitSteps="0" timeLoss="8.44" rerouteNo="0" devices="tripinfo_right_5" vType="type5" speedFactor="1.00" vaporized=""/>
    <tripinfo id="right_6" depart="50.00" departLane="12_0" departPos="5.00" departSpeed="0.00" departDelay="0.00" arrival="82.00" arrivalLane="34_0" arrivalPos="10.00" arrivalSpeed="5.64" duration="32.00" routeLength="155.20" waitSteps="0" timeLoss="5.59" rerouteNo="0" devices="tripinfo_right_6" vType="type1" speedFactor="1.00" vaporized=""/>
    <tripinfo id="right_7" depart="68.00" departLane="12_0" departPos="4.10" departSpeed="0.00" departDelay="0.00" arrival="85.00" arrivalLane="34_0" arrivalPos="10.00" arrivalSpeed="17.43" duration="17.00" routeLength="156.10" waitSteps="0" timeLoss="8.04" rerouteNo="0" devices="tripinfo_right_7" vType="type5" speedFactor="1.00" vaporized=""/>
    <tripinfo id="right_8" depart="106.00" departLane="12_0" departPos="5.00" departSpeed="0.00" departDelay="0.00" arrival="138.00" arrivalLane="34_0" arrivalPos="10.00" arrivalSpeed="5.90" duration="32.00" routeLength="155.20" waitSteps="0" timeLoss="5.61" rerouteNo="0" devices="tripinfo_right_8" vType="type1" speedFactor="1.00" vaporized=""/>
    <tripinfo id="right_9" depart="138.00" departLane="12_0" departPos="5.00" departSpeed="0.00" departDelay="0.00" arrival="170.00" arrivalLane="34_0" arrivalPos="10.00" arrivalSpeed="5.63" duration="32.00" routeLength="155.20" waitSteps="0" timeLoss="5.56" rerouteNo="0" devices="tripinfo_right_9" vType="type1" speedFactor="1.00" vaporized=""/>
    <tripinfo id="right_10" depart="168.00" departLane="12_1" departPos="4.10" departSpeed="0.00" departDelay="0.00" arrival="185.00" arrivalLane="34_1" arrivalPos="10.00" arrivalSpeed="17.97" duration="17.00" routeLength="156.10" waitSteps="0" timeLoss="7.73" rerouteNo="0" devices="tripinfo_right_10" vType="type5" speedFactor="1.00" vaporized=""/>
    <tripinfo id="right_11" depart="206.00" departLane="12_1" departPos="4.10" departSpeed="0.00" departDelay="0.00" arrival="223.00" arrivalLane="34_1" arrivalPos="10.00" arrivalSpeed="17.76" duration="17.00" routeLength="156.10" waitSteps="0" timeLoss="7.45" rerouteNo="0" devices="tripinfo_right_11" vType="type5" speedFactor="1.00" vaporized=""/>
    <tripinfo id="right_12" depart="262.00" departLane="12_1" departPos="5.00" departSpeed="0.00" departDelay="0.00" arrival="294.00" arrivalLane="34_0" arrivalPos="10.00" arrivalSpeed="5.87" duration="32.00" routeLength="155.20" waitSteps="0" timeLoss="5.24" rerouteNo="0" devices="tripinfo_right_12" vType="type1" speedFactor="1.00" vaporized=""/>
    <tripinfo id="right_13" depart="288.00" departLane="12_1" departPos="4.10" departSpeed="0.00" departDelay="0.00" arrival="305.00" arrivalLane="34_1" arrivalPos="10.00" arrivalSpeed="17.38" duration="17.00" routeLength="156.10" waitSteps="0" timeLoss="8.14" rerouteNo="0" devices="tripinfo_right_13" vType="type5" speedFactor="1.00" vaporized=""/>
    <tripinfo id="right_14" depart="292.00" departLane="12_1" departPos="5.00" departSpeed="0.00" departDelay="3.00" arrival="324.00" arrivalLane="34_0" arrivalPos="10.00" arrivalSpeed="5.79" duration="32.00" routeLength="155.20" waitSteps="0" timeLoss="5.73" rerouteNo="0" devices="tripinfo_right_14" vType="type1" speedFactor="1.00" vaporized=""/>
    <tripinfo id="right_15" depart="320.00" departLane="12_0" departPos="4.10" departSpeed="0.00" departDelay="0.00" arrival="338.00" arrivalLane="34_0" arrivalPos="10.00" arrivalSpeed="17.41" duration="18.00" routeLength="156.10" waitSteps="0" timeLoss="8.70" rerouteNo="0" devices="tripinfo_right_15" vType="type5" speedFactor="1.00" vaporized=""/>
    <tripinfo id="right_16" depart="330.00" departLane="12_1" departPos="5.00" departSpeed="0.00" departDelay="0.00" arrival="350.00" arrivalLane="34_0" arrivalPos="10.00" arrivalSpeed="15.76" duration="20.00" routeLength="155.20" waitSteps="0" timeLoss="9.48" rerouteNo="0" devices="tripinfo_right_16" vType="type3" speedFactor="1.00" vaporized=""/>
    <tripinfo id="right_17" depart="343.00" departLane="12_1" departPos="5.00" departSpeed="0.00" departDelay="0.00" arrival="375.00" arrivalLane="34_0" arrivalPos="10.00" arrivalSpeed="5.65" duration="32.00" routeLength="155.20" waitSteps="0" timeLoss="5.37" rerouteNo="0" devices="tripinfo_right_17" vType="type1" speedFactor="1.00" vaporized=""/>
    <tripinfo id="right_18" depart="358.00" departLane="12_0" departPos="4.10" departSpeed="0.00" departDelay="0.00" arrival="377.00" arrivalLane="34_0" arrivalPos="10.00" arrivalSpeed="11.61" duration="19.00" routeLength="156.10" waitSteps="0" timeLoss="10.09" rerouteNo="0" devices="tripinfo_right_18" vType="type5" speedFactor="1.00" vaporized=""/>
    <tripinfo id="right_19" depart="364.00" departLane="12_0" departPos="5.00" departSpeed="0.00" departDelay="0.00" arrival="384.00" arrivalLane="34_0" arrivalPos="10.00" arrivalSpeed="15.55" duration="20.00" routeLength="155.20" waitSteps="0" timeLoss="9.73" rerouteNo="0" devices="tripinfo_right_19" vType="type3" speedFactor="1.00" vaporized=""/>
    <tripinfo id="right_20" depart="370.00" departLane="12_1" departPos="5.00" departSpeed="0.00" departDelay="0.00" arrival="389.00" arrivalLane="34_1" arrivalPos="10.00" arrivalSpeed="15.47" duration="19.00" routeLength="155.20" waitSteps="0" timeLoss="8.82" rerouteNo="0" devices="tripinfo_right_20" vType="type3" speedFactor="1.00" vaporized=""/>
    <tripinfo id="right_21" depart="408.00" departLane="12_0" departPos="5.00" departSpeed="0.00" departDelay="0.00" arrival="428.00" arrivalLane="34_0" arrivalPos="10.00" arrivalSpeed="15.99" duration="20.00" routeLength="155.20" waitSteps="0" timeLoss="10.00" rerouteNo="0" devices="tripinfo_right_21" vType="type3" speedFactor="1.00" vaporized=""/>
    <tripinfo id="right_22" depart="422.00" departLane="12_1" departPos="5.00" departSpeed="0.00" departDelay="0.00" arrival="445.00" arrivalLane="34_0" arrivalPos="10.00" arrivalSpeed="10.92" duration="23.00" routeLength="155.20" waitSteps="0" timeLoss="8.38" rerouteNo="0" devices="tripinfo_right_22" vType="type2" speedFactor="1.00" vaporized=""/>
    <tripinfo id="right_23" depart="428.00" departLane="12_1" departPos="4.10" departSpeed="0.00" departDelay="1.00" arrival="445.00" arrivalLane="34_1" arrivalPos="10.00" arrivalSpeed="17.68" duration="17.00" routeLength="156.10" waitSteps="0" timeLoss="7.43" rerouteNo="0" devices="tripinfo_right_23" vType="type5" speedFactor="1.00" vaporized=""/>
    <tripinfo id="right_24" depart="429.00" departLane="12_0" departPos="5.00" departSpeed="0.00" departDelay="0.00" arrival="452.00" arrivalLane="34_0" arrivalPos="10.00" arrivalSpeed="10.59" duration="23.00" routeLength="155.20" waitSteps="0" timeLoss="8.03" rerouteNo="0" devices="tripinfo_right_24" vType="type2" speedFactor="1.00" vaporized=""/>
    <tripinfo id="right_25" depart="450.00" departLane="12_0" departPos="4.10" departSpeed="0.00" departDelay="0.00" arrival="467.00" arrivalLane="34_0" arrivalPos="10.00" arrivalSpeed="17.48" duration="17.00" routeLength="156.10" waitSteps="0" timeLoss="8.07" rerouteNo="0" devices="tripinfo_right_25" vType="type5" speedFactor="1.00" vaporized=""/>
    <tripinfo id="right_26" depart="468.00" departLane="12_1" departPos="4.10" departSpeed="0.00" departDelay="0.00" arrival="485.00" arrivalLane="34_1" arrivalPos="10.00" arrivalSpeed="17.75" duration="17.00" routeLength="156.10" waitSteps="0" timeLoss="8.14" rerouteNo="0" devices="tripinfo_right_26" vType="type5" speedFactor="1.00" vaporized=""/>
    <tripinfo id="right_27" depart="470.00" departLane="12_0" departPos="5.00" departSpeed="0.00" departDelay="0.00" arrival="491.00" arrivalLane="34_0" arrivalPos="10.00" arrivalSpeed="15.31" duration="21.00" routeLength="155.20" waitSteps="0" timeLoss="10.68" rerouteNo="0" devices="tripinfo_right_27" vType="type3" speedFactor="1.00" vaporized=""/>
    <tripinfo id="right_29" depart="492.00" departLane="12_0" departPos="5.00" departSpeed="0.00" departDelay="0.00" arrival="511.00" arrivalLane="34_1" arrivalPos="10.00" arrivalSpeed="15.99" duration="19.00" routeLength="155.20" waitSteps="0" timeLoss="9.53" rerouteNo="0" devices="tripinfo_right_29" vType="type4" speedFactor="1.00" vaporized=""/>
    <tripinfo id="right_28" depart="484.00" departLane="12_1" departPos="5.00" departSpeed="0.00" departDelay="0.00" arrival="515.00" arrivalLane="34_0" arrivalPos="10.00" arrivalSpeed="5.61" duration="31.00" routeLength="155.20" waitSteps="0" timeLoss="4.73" rerouteNo="0" devices="tripinfo_right_28" vType="type1" speedFactor="1.00" vaporized=""/>
    <tripinfo id="right_30" depart="496.00" departLane="12_0" departPos="5.00" departSpeed="0.00" departDelay="0.00" arrival="517.00" arrivalLane="34_0" arrivalPos="10.00" arrivalSpeed="8.62" duration="21.00" routeLength="155.20" waitSteps="0" timeLoss="11.86" rerouteNo="0" devices="tripinfo_right_30" vType="type4" speedFactor="1.00" vaporized=""/>
    <tripinfo id="right_31" depart="503.00" departLane="12_0" departPos="5.00" departSpeed="0.00" departDelay="0.00" arrival="521.00" arrivalLane="34_0" arrivalPos="10.00" arrivalSpeed="16.58" duration="18.00" routeLength="155.20" waitSteps="0" timeLoss="8.50" rerouteNo="0" devices="tripinfo_right_31" vType="type4" speedFactor="1.00" vaporized=""/>
    <tripinfo id="right_32" depart="518.00" departLane="12_1" departPos="5.00" departSpeed="0.00" departDelay="0.00" arrival="550.00" arrivalLane="34_0" arrivalPos="10.00" arrivalSpeed="5.81" duration="32.00" routeLength="155.20" waitSteps="0" timeLoss="5.37" rerouteNo="0" devices="tripinfo_right_32" vType="type1" speedFactor="1.00" vaporized=""/>
    <tripinfo id="right_33" depart="549.00" departLane="12_1" departPos="4.10" departSpeed="0.00" departDelay="0.00" arrival="566.00" arrivalLane="34_1" arrivalPos="10.00" arrivalSpeed="17.44" duration="17.00" routeLength="156.10" waitSteps="0" timeLoss="7.82" rerouteNo="0" devices="tripinfo_right_33" vType="type5" speedFactor="1.00" vaporized=""/>
    <tripinfo id="right_34" depart="557.00" departLane="12_0" departPos="5.00" departSpeed="0.00" departDelay="0.00" arrival="575.00" arrivalLane="34_0" arrivalPos="10.00" arrivalSpeed="15.79" duration="18.00" routeLength="155.20" waitSteps="0" timeLoss="8.82" rerouteNo="0" devices="tripinfo_right_34" vType="type4" speedFactor="1.00" vaporized=""/>
    <tripinfo id="right_35" depart="570.00" departLane="12_0" departPos="5.00" departSpeed="0.00" departDelay="0.00" arrival="588.00" arrivalLane="34_0" arrivalPos="10.00" arrivalSpeed="16.79" duration="18.00" routeLength="155.20" waitSteps="0" timeLoss="8.69" rerouteNo="0" devices="tripinfo_right_35" vType="type4" speedFactor="1.00" vaporized=""/>
    <tripinfo id="right_36" depart="578.00" departLane="12_1" departPos="5.00" departSpeed="0.00" departDelay="0.00" arrival="598.00" arrivalLane="34_1" arrivalPos="10.00" arrivalSpeed="15.82" duration="20.00" routeLength="155.20" waitSteps="0" timeLoss="9.32" rerouteNo="0" devices="tripinfo_right_36" vType="type3" speedFactor="1.00" vaporized=""/>
    <tripinfo id="right_37" depart="618.00" departLane="12_0" departPos="5.00" departSpeed="0.00" departDelay="0.00" arrival="649.00" arrivalLane="34_0" arrivalPos="10.00" arrivalSpeed="5.76" duration="31.00" routeLength="155.20" waitSteps="0" timeLoss="5.04" rerouteNo="0" devices="tripinfo_right_37" vType="type1" speedFactor="1.00" vaporized=""/>
    <tripinfo id="right_38" depart="681.00" departLane="12_1" departPos="5.00" departSpeed="0.00" departDelay="0.00" arrival="703.00" arrivalLane="34_0" arrivalPos="10.00" arrivalSpeed="10.73" duration="22.00" routeLength="155.20" waitSteps="0" timeLoss="7.66" rerouteNo="0" devices="tripinfo_right_38" vType="type2" speedFactor="1.00" vaporized=""/>
    <tripinfo id="right_39" depart="686.00" departLane="12_1" departPos="4.10" departSpeed="0.00" departDelay="1.00" arrival="704.00" arrivalLane="34_1" arrivalPos="10.00" arrivalSpeed="17.49" duration="18.00" routeLength="156.10" waitSteps="0" timeLoss="8.44" rerouteNo="0" devices="tripinfo_right_39" vType="type5" speedFactor="1.00" vaporized=""/>
    <tripinfo id="right_40" depart="694.00" departLane="12_1" departPos="5.00" departSpeed="0.00" departDelay="0.00" arrival="716.00" arrivalLane="34_0" arrivalPos="10.00" arrivalSpeed="10.59" duration="22.00" routeLength="155.20" waitSteps="0" timeLoss="7.61" rerouteNo="0" devices="tripinfo_right_40" vType="type2" speedFactor="1.00" vaporized=""/>
    <tripinfo id="right_42" depart="705.00" departLane="12_0" departPos="5.00" departSpeed="0.00" departDelay="0.00" arrival="723.00" arrivalLane="34_1" arrivalPos="10.00" arrivalSpeed="16.54" duration="18.00" routeLength="155.20" waitSteps="0" timeLoss="8.60" rerouteNo="0" devices="tripinfo_right_42" vType="type4" speedFactor="1.00" vaporized=""/>
    <tripinfo id="right_41" depart="700.00" departLane="12_1" departPos="5.00" departSpeed="0.00" departDelay="0.00" arrival="731.00" arrivalLane="34_0" arrivalPos="10.00" arrivalSpeed="5.92" duration="31.00" routeLength="155.20" waitSteps="0" timeLoss="4.88" rerouteNo="0" devices="tripinfo_right_41" vType="type1" speedFactor="1.00" vaporized=""/>
    <tripinfo id="right_43" depart="718.00" departLane="12_1" departPos="5.00" departSpeed="0.00" departDelay="0.00" arrival="740.00" arrivalLane="34_0" arrivalPos="10.00" arrivalSpeed="10.58" duration="22.00" routeLength="155.20" waitSteps="0" timeLoss="7.50" rerouteNo="0" devices="tripinfo_right_43" vType="type2" speedFactor="1.00" vaporized=""/>
    <tripinfo id="right_44" depart="728.00" departLane="12_0" departPos="5.00" departSpeed="0.00" departDelay="0.00" arrival="747.00" arrivalLane="34_0" arrivalPos="10.00" arrivalSpeed="15.59" duration="19.00" routeLength="155.20" waitSteps="0" timeLoss="8.36" rerouteNo="0" devices="tripinfo_right_44" vType="type3" speedFactor="1.00" vaporized=""/>
    <tripinfo id="right_45" depart="771.00" departLane="12_1" departPos="5.00" departSpeed="0.00" departDelay="0.00" arrival="790.00" arrivalLane="34_1" arrivalPos="10.00" arrivalSpeed="15.85" duration="19.00" routeLength="155.20" waitSteps="0" timeLoss="8.92" rerouteNo="0" devices="tripinfo_right_45" vType="type3" speedFactor="1.00" vaporized=""/>
    <tripinfo id="right_46" depart="797.00" departLane="12_0" departPos="5.00" departSpeed="0.00" departDelay="0.00" arrival="817.00" arrivalLane="34_0" arrivalPos="10.00" arrivalSpeed="15.97" duration="20.00" routeLength="155.20" waitSteps="0" timeLoss="9.36" rerouteNo="0" devices="tripinfo_right_46" vType="type3" speedFactor="1.00" vaporized=""/>
    <tripinfo id="right_47" depart="806.00" departLane="12_1" departPos="4.10" departSpeed="0.00" departDelay="0.00" arrival="823.00" arrivalLane="34_1" arrivalPos="10.00" arrivalSpeed="18.00" duration="17.00" routeLength="156.10" waitSteps="0" timeLoss="7.63" rerouteNo="0" devices="tripinfo_right_47" vType="type5" speedFactor="1.00" vaporized=""/>
    <tripinfo id="right_48" depart="828.00" departLane="12_0" departPos="4.10" departSpeed="0.00" departDelay="0.00" arrival="846.00" arrivalLane="34_0" arrivalPos="10.00" arrivalSpeed="17.75" duration="18.00" routeLength="156.10" waitSteps="0" timeLoss="8.85" rerouteNo="0" devices="tripinfo_right_48" vType="type5" speedFactor="1.00" vaporized=""/>
    <tripinfo id="right_50" depart="846.00" departLane="12_0" departPos="5.00" departSpeed="0.00" departDelay="0.00" arrival="865.00" arrivalLane="34_0" arrivalPos="10.00" arrivalSpeed="16.21" duration="19.00" routeLength="155.20" waitSteps="0" timeLoss="9.41" rerouteNo="0" devices="tripinfo_right_50" vType="type4" speedFactor="1.00" vaporized=""/>
    <tripinfo id="right_49" depart="843.00" departLane="12_1" departPos="5.00" departSpeed="0.00" departDelay="0.00" arrival="875.00" arrivalLane="34_0" arrivalPos="10.00" arrivalSpeed="5.88" duration="32.00" routeLength="155.20" waitSteps="0" timeLoss="5.64" rerouteNo="0" devices="tripinfo_right_49" vType="type1" speedFactor="1.00" vaporized=""/>
</tripinfos>
