<?xml version="1.0" encoding="UTF-8"?>

<!-- generated on Sel 05 Jun 2018 12:39:41  +07 by SUMO gui Version 0.32.0
<?xml version="1.0" encoding="UTF-8"?>

<configuration xmlns:xsi="http://www.w3.org/2001/XMLSchema-instance" xsi:noNamespaceSchemaLocation="http://sumo.dlr.de/xsd/sumoConfiguration.xsd">

    <input>
        <net-file value="data/cross.net.xml"/>
        <route-files value="data/cross.rou.xml"/>
        <additional-files value="data/cross.det.xml"/>
    </input>

    <output>
        <tripinfo-output value="tripinfo.xml"/>
    </output>

    <time>
        <begin value="0"/>
    </time>

    <report>
        <verbose value="true"/>
        <no-step-log value="true"/>
    </report>

    <traci_server>
        <remote-port value="54475"/>
    </traci_server>

</configuration>
-->

<tripinfos xmlns:xsi="http://www.w3.org/2001/XMLSchema-instance" xsi:noNamespaceSchemaLocation="http://sumo.dlr.de/xsd/tripinfo_file.xsd">
    <tripinfo id="right_0" depart="1.00" departLane="12_0" departPos="5.10" departSpeed="0.00" departDelay="0.00" arrival="149.00" arrivalLane="34_0" arrivalPos="10.00" arrivalSpeed="5.55" duration="148.00" routeLength="785.10" waitSteps="0" timeLoss="9.27" rerouteNo="0" devices="tripinfo_right_0" vType="typeWE" speedFactor="1.00" vaporized=""/>
    <tripinfo id="right_1" depart="7.00" departLane="12_0" departPos="5.10" departSpeed="0.00" departDelay="0.00" arrival="155.00" arrivalLane="34_0" arrivalPos="10.00" arrivalSpeed="5.45" duration="148.00" routeLength="785.10" waitSteps="0" timeLoss="8.81" rerouteNo="0" devices="tripinfo_right_1" vType="typeWE" speedFactor="1.00" vaporized=""/>
    <tripinfo id="right_2" depart="12.00" departLane="12_0" departPos="5.10" departSpeed="0.00" departDelay="3.00" arrival="160.00" arrivalLane="34_0" arrivalPos="10.00" arrivalSpeed="5.56" duration="148.00" routeLength="785.10" waitSteps="0" timeLoss="9.02" rerouteNo="0" devices="tripinfo_right_2" vType="typeWE" speedFactor="1.00" vaporized=""/>
    <tripinfo id="right_3" depart="17.00" departLane="12_0" departPos="5.10" departSpeed="0.00" departDelay="5.00" arrival="165.00" arrivalLane="34_0" arrivalPos="10.00" arrivalSpeed="5.63" duration="148.00" routeLength="785.10" waitSteps="0" timeLoss="9.34" rerouteNo="0" devices="tripinfo_right_3" vType="typeWE" speedFactor="1.00" vaporized=""/>
    <tripinfo id="right_4" depart="22.00" departLane="12_0" departPos="5.10" departSpeed="0.00" departDelay="3.00" arrival="170.00" arrivalLane="34_0" arrivalPos="10.00" arrivalSpeed="5.37" duration="148.00" routeLength="785.10" waitSteps="0" timeLoss="8.93" rerouteNo="0" devices="tripinfo_right_4" vType="typeWE" speedFactor="1.00" vaporized=""/>
    <tripinfo id="right_5" depart="27.00" departLane="12_0" departPos="5.10" departSpeed="0.00" departDelay="1.00" arrival="175.00" arrivalLane="34_0" arrivalPos="10.00" arrivalSpeed="5.57" duration="148.00" routeLength="785.10" waitSteps="0" timeLoss="8.90" rerouteNo="0" devices="tripinfo_right_5" vType="typeWE" speedFactor="1.00" vaporized=""/>
    <tripinfo id="right_6" depart="32.00" departLane="12_0" departPos="5.10" departSpeed="0.00" departDelay="5.00" arrival="181.00" arrivalLane="34_0" arrivalPos="10.00" arrivalSpeed="5.50" duration="149.00" routeLength="785.10" waitSteps="0" timeLoss="9.78" rerouteNo="0" devices="tripinfo_right_6" vType="typeWE" speedFactor="1.00" vaporized=""/>
    <tripinfo id="right_7" depart="41.00" departLane="12_0" departPos="5.10" departSpeed="0.00" departDelay="0.00" arrival="189.00" arrivalLane="34_0" arrivalPos="10.00" arrivalSpeed="5.66" duration="148.00" routeLength="785.10" waitSteps="0" timeLoss="8.71" rerouteNo="0" devices="tripinfo_right_7" vType="typeWE" speedFactor="1.00" vaporized=""/>
    <tripinfo id="right_8" depart="46.00" departLane="12_0" departPos="5.10" departSpeed="0.00" departDelay="2.00" arrival="194.00" arrivalLane="34_0" arrivalPos="10.00" arrivalSpeed="5.46" duration="148.00" routeLength="785.10" waitSteps="0" timeLoss="9.01" rerouteNo="0" devices="tripinfo_right_8" vType="typeWE" speedFactor="1.00" vaporized=""/>
    <tripinfo id="right_9" depart="67.00" departLane="12_0" departPos="5.10" departSpeed="0.00" departDelay="0.00" arrival="215.00" arrivalLane="34_0" arrivalPos="10.00" arrivalSpeed="5.46" duration="148.00" routeLength="785.10" waitSteps="0" timeLoss="9.51" rerouteNo="0" devices="tripinfo_right_9" vType="typeWE" speedFactor="1.00" vaporized=""/>
    <tripinfo id="right_10" depart="88.00" departLane="12_0" departPos="5.10" departSpeed="0.00" departDelay="0.00" arrival="237.00" arrivalLane="34_0" arrivalPos="10.00" arrivalSpeed="5.54" duration="149.00" routeLength="785.10" waitSteps="0" timeLoss="9.59" rerouteNo="0" devices="tripinfo_right_10" vType="typeWE" speedFactor="1.00" vaporized=""/>
    <tripinfo id="right_11" depart="93.00" departLane="12_0" departPos="5.10" departSpeed="0.00" departDelay="4.00" arrival="241.00" arrivalLane="34_0" arrivalPos="10.00" arrivalSpeed="5.62" duration="148.00" routeLength="785.10" waitSteps="0" timeLoss="9.01" rerouteNo="0" devices="tripinfo_right_11" vType="typeWE" speedFactor="1.00" vaporized=""/>
    <tripinfo id="right_12" depart="98.00" departLane="12_0" departPos="5.10" departSpeed="0.00" departDelay="4.00" arrival="246.00" arrivalLane="34_0" arrivalPos="10.00" arrivalSpeed="5.64" duration="148.00" routeLength="785.10" waitSteps="0" timeLoss="9.52" rerouteNo="0" devices="tripinfo_right_12" vType="typeWE" speedFactor="1.00" vaporized=""/>
    <tripinfo id="right_13" depart="103.00" departLane="12_0" departPos="5.10" departSpeed="0.00" departDelay="3.00" arrival="251.00" arrivalLane="34_0" arrivalPos="10.00" arrivalSpeed="5.64" duration="148.00" routeLength="785.10" waitSteps="0" timeLoss="8.62" rerouteNo="0" devices="tripinfo_right_13" vType="typeWE" speedFactor="1.00" vaporized=""/>
    <tripinfo id="right_14" depart="124.00" departLane="12_0" departPos="5.10" departSpeed="0.00" departDelay="0.00" arrival="273.00" arrivalLane="34_0" arrivalPos="10.00" arrivalSpeed="5.31" duration="149.00" routeLength="785.10" waitSteps="0" timeLoss="9.94" rerouteNo="0" devices="tripinfo_right_14" vType="typeWE" speedFactor="1.00" vaporized=""/>
    <tripinfo id="right_15" depart="130.00" departLane="12_0" departPos="5.10" departSpeed="0.00" departDelay="4.00" arrival="278.00" arrivalLane="34_0" arrivalPos="10.00" arrivalSpeed="5.27" duration="148.00" routeLength="785.10" waitSteps="0" timeLoss="8.97" rerouteNo="0" devices="tripinfo_right_15" vType="typeWE" speedFactor="1.00" vaporized=""/>
    <tripinfo id="right_16" depart="135.00" departLane="12_0" departPos="5.10" departSpeed="0.00" departDelay="4.00" arrival="283.00" arrivalLane="34_0" arrivalPos="10.00" arrivalSpeed="5.49" duration="148.00" routeLength="785.10" waitSteps="0" timeLoss="8.80" rerouteNo="0" devices="tripinfo_right_16" vType="typeWE" speedFactor="1.00" vaporized=""/>
    <tripinfo id="right_17" depart="140.00" departLane="12_0" departPos="5.10" departSpeed="0.00" departDelay="6.00" arrival="288.00" arrivalLane="34_0" arrivalPos="10.00" arrivalSpeed="5.33" duration="148.00" routeLength="785.10" waitSteps="0" timeLoss="8.95" rerouteNo="0" devices="tripinfo_right_17" vType="typeWE" speedFactor="1.00" vaporized=""/>
    <tripinfo id="right_18" depart="145.00" departLane="12_0" departPos="5.10" departSpeed="0.00" departDelay="9.00" arrival="293.00" arrivalLane="34_0" arrivalPos="10.00" arrivalSpeed="5.53" duration="148.00" routeLength="785.10" waitSteps="0" timeLoss="8.75" rerouteNo="0" devices="tripinfo_right_18" vType="typeWE" speedFactor="1.00" vaporized=""/>
    <tripinfo id="right_19" depart="160.00" departLane="12_0" departPos="5.10" departSpeed="0.00" departDelay="0.00" arrival="307.00" arrivalLane="34_0" arrivalPos="10.00" arrivalSpeed="5.31" duration="147.00" routeLength="785.10" waitSteps="0" timeLoss="8.18" rerouteNo="0" devices="tripinfo_right_19" vType="typeWE" speedFactor="1.00" vaporized=""/>
    <tripinfo id="right_20" depart="165.00" departLane="12_0" departPos="5.10" departSpeed="0.00" departDelay="0.00" arrival="313.00" arrivalLane="34_0" arrivalPos="10.00" arrivalSpeed="5.29" duration="148.00" routeLength="785.10" waitSteps="0" timeLoss="8.93" rerouteNo="0" devices="tripinfo_right_20" vType="typeWE" speedFactor="1.00" vaporized=""/>
    <tripinfo id="right_21" depart="176.00" departLane="12_0" departPos="5.10" departSpeed="0.00" departDelay="0.00" arrival="324.00" arrivalLane="34_0" arrivalPos="10.00" arrivalSpeed="5.39" duration="148.00" routeLength="785.10" waitSteps="0" timeLoss="8.91" rerouteNo="0" devices="tripinfo_right_21" vType="typeWE" speedFactor="1.00" vaporized=""/>
    <tripinfo id="right_22" depart="183.00" departLane="12_0" departPos="5.10" departSpeed="0.00" departDelay="0.00" arrival="331.00" arrivalLane="34_0" arrivalPos="10.00" arrivalSpeed="5.52" duration="148.00" routeLength="785.10" waitSteps="0" timeLoss="9.23" rerouteNo="0" devices="tripinfo_right_22" vType="typeWE" speedFactor="1.00" vaporized=""/>
    <tripinfo id="right_23" depart="197.00" departLane="12_0" departPos="5.10" departSpeed="0.00" departDelay="0.00" arrival="344.00" arrivalLane="34_0" arrivalPos="10.00" arrivalSpeed="5.30" duration="147.00" routeLength="785.10" waitSteps="0" timeLoss="8.44" rerouteNo="0" devices="tripinfo_right_23" vType="typeWE" speedFactor="1.00" vaporized=""/>
    <tripinfo id="right_24" depart="207.00" departLane="12_0" departPos="5.10" departSpeed="0.00" departDelay="0.00" arrival="355.00" arrivalLane="34_0" arrivalPos="10.00" arrivalSpeed="5.33" duration="148.00" routeLength="785.10" waitSteps="0" timeLoss="9.36" rerouteNo="0" devices="tripinfo_right_24" vType="typeWE" speedFactor="1.00" vaporized=""/>
    <tripinfo id="right_25" depart="224.00" departLane="12_0" departPos="5.10" departSpeed="0.00" departDelay="0.00" arrival="371.00" arrivalLane="34_0" arrivalPos="10.00" arrivalSpeed="5.36" duration="147.00" routeLength="785.10" waitSteps="0" timeLoss="8.50" rerouteNo="0" devices="tripinfo_right_25" vType="typeWE" speedFactor="1.00" vaporized=""/>
    <tripinfo id="right_26" depart="230.00" departLane="12_0" departPos="5.10" departSpeed="0.00" departDelay="0.00" arrival="378.00" arrivalLane="34_0" arrivalPos="10.00" arrivalSpeed="5.52" duration="148.00" routeLength="785.10" waitSteps="0" timeLoss="9.35" rerouteNo="0" devices="tripinfo_right_26" vType="typeWE" speedFactor="1.00" vaporized=""/>
    <tripinfo id="right_27" depart="252.00" departLane="12_0" departPos="5.10" departSpeed="0.00" departDelay="0.00" arrival="400.00" arrivalLane="34_0" arrivalPos="10.00" arrivalSpeed="5.55" duration="148.00" routeLength="785.10" waitSteps="0" timeLoss="9.35" rerouteNo="0" devices="tripinfo_right_27" vType="typeWE" speedFactor="1.00" vaporized=""/>
    <tripinfo id="right_28" depart="257.00" departLane="12_0" departPos="5.10" departSpeed="0.00" departDelay="1.00" arrival="405.00" arrivalLane="34_0" arrivalPos="10.00" arrivalSpeed="5.47" duration="148.00" routeLength="785.10" waitSteps="0" timeLoss="9.35" rerouteNo="0" devices="tripinfo_right_28" vType="typeWE" speedFactor="1.00" vaporized=""/>
    <tripinfo id="right_29" depart="269.00" departLane="12_0" departPos="5.10" departSpeed="0.00" departDelay="0.00" arrival="418.00" arrivalLane="34_0" arrivalPos="10.00" arrivalSpeed="5.38" duration="149.00" routeLength="785.10" waitSteps="0" timeLoss="9.74" rerouteNo="0" devices="tripinfo_right_29" vType="typeWE" speedFactor="1.00" vaporized=""/>
    <tripinfo id="right_30" depart="287.00" departLane="12_0" departPos="5.10" departSpeed="0.00" departDelay="0.00" arrival="435.00" arrivalLane="34_0" arrivalPos="10.00" arrivalSpeed="5.51" duration="148.00" routeLength="785.10" waitSteps="0" timeLoss="8.86" rerouteNo="0" devices="tripinfo_right_30" vType="typeWE" speedFactor="1.00" vaporized=""/>
    <tripinfo id="right_31" depart="292.00" departLane="12_0" departPos="5.10" departSpeed="0.00" departDelay="2.00" arrival="440.00" arrivalLane="34_0" arrivalPos="10.00" arrivalSpeed="5.32" duration="148.00" routeLength="785.10" waitSteps="0" timeLoss="9.26" rerouteNo="0" devices="tripinfo_right_31" vType="typeWE" speedFactor="1.00" vaporized=""/>
    <tripinfo id="right_32" depart="297.00" departLane="12_0" departPos="5.10" departSpeed="0.00" departDelay="0.00" arrival="445.00" arrivalLane="34_0" arrivalPos="10.00" arrivalSpeed="5.32" duration="148.00" routeLength="785.10" waitSteps="0" timeLoss="9.08" rerouteNo="0" devices="tripinfo_right_32" vType="typeWE" speedFactor="1.00" vaporized=""/>
    <tripinfo id="right_33" depart="302.00" departLane="12_0" departPos="5.10" departSpeed="0.00" departDelay="4.00" arrival="450.00" arrivalLane="34_0" arrivalPos="10.00" arrivalSpeed="5.50" duration="148.00" routeLength="785.10" waitSteps="0" timeLoss="8.87" rerouteNo="0" devices="tripinfo_right_33" vType="typeWE" speedFactor="1.00" vaporized=""/>
    <tripinfo id="right_34" depart="324.00" departLane="12_0" departPos="5.10" departSpeed="0.00" departDelay="0.00" arrival="472.00" arrivalLane="34_0" arrivalPos="10.00" arrivalSpeed="5.58" duration="148.00" routeLength="785.10" waitSteps="0" timeLoss="9.20" rerouteNo="0" devices="tripinfo_right_34" vType="typeWE" speedFactor="1.00" vaporized=""/>
    <tripinfo id="right_35" depart="342.00" departLane="12_0" departPos="5.10" departSpeed="0.00" departDelay="0.00" arrival="490.00" arrivalLane="34_0" arrivalPos="10.00" arrivalSpeed="5.47" duration="148.00" routeLength="785.10" waitSteps="0" timeLoss="9.06" rerouteNo="0" devices="tripinfo_right_35" vType="typeWE" speedFactor="1.00" vaporized=""/>
    <tripinfo id="right_36" depart="368.00" departLane="12_0" departPos="5.10" departSpeed="0.00" departDelay="0.00" arrival="516.00" arrivalLane="34_0" arrivalPos="10.00" arrivalSpeed="5.35" duration="148.00" routeLength="785.10" waitSteps="0" timeLoss="8.87" rerouteNo="0" devices="tripinfo_right_36" vType="typeWE" speedFactor="1.00" vaporized=""/>
    <tripinfo id="right_37" depart="375.00" departLane="12_0" departPos="5.10" departSpeed="0.00" departDelay="0.00" arrival="524.00" arrivalLane="34_0" arrivalPos="10.00" arrivalSpeed="5.37" duration="149.00" routeLength="785.10" waitSteps="0" timeLoss="9.67" rerouteNo="0" devices="tripinfo_right_37" vType="typeWE" speedFactor="1.00" vaporized=""/>
    <tripinfo id="right_38" depart="394.00" departLane="12_0" departPos="5.10" departSpeed="0.00" departDelay="0.00" arrival="542.00" arrivalLane="34_0" arrivalPos="10.00" arrivalSpeed="5.33" duration="148.00" routeLength="785.10" waitSteps="0" timeLoss="8.83" rerouteNo="0" devices="tripinfo_right_38" vType="typeWE" speedFactor="1.00" vaporized=""/>
    <tripinfo id="right_39" depart="406.00" departLane="12_0" departPos="5.10" departSpeed="0.00" departDelay="0.00" arrival="554.00" arrivalLane="34_0" arrivalPos="10.00" arrivalSpeed="5.52" duration="148.00" routeLength="785.10" waitSteps="0" timeLoss="9.09" rerouteNo="0" devices="tripinfo_right_39" vType="typeWE" speedFactor="1.00" vaporized=""/>
    <tripinfo id="right_40" depart="415.00" departLane="12_0" departPos="5.10" departSpeed="0.00" departDelay="0.00" arrival="563.00" arrivalLane="34_0" arrivalPos="10.00" arrivalSpeed="5.30" duration="148.00" routeLength="785.10" waitSteps="0" timeLoss="9.25" rerouteNo="0" devices="tripinfo_right_40" vType="typeWE" speedFactor="1.00" vaporized=""/>
    <tripinfo id="right_41" depart="420.00" departLane="12_0" departPos="5.10" departSpeed="0.00" departDelay="1.00" arrival="568.00" arrivalLane="34_0" arrivalPos="10.00" arrivalSpeed="5.37" duration="148.00" routeLength="785.10" waitSteps="0" timeLoss="9.38" rerouteNo="0" devices="tripinfo_right_41" vType="typeWE" speedFactor="1.00" vaporized=""/>
    <tripinfo id="right_42" depart="427.00" departLane="12_0" departPos="5.10" departSpeed="0.00" departDelay="0.00" arrival="576.00" arrivalLane="34_0" arrivalPos="10.00" arrivalSpeed="5.34" duration="149.00" routeLength="785.10" waitSteps="0" timeLoss="9.81" rerouteNo="0" devices="tripinfo_right_42" vType="typeWE" speedFactor="1.00" vaporized=""/>
    <tripinfo id="right_43" depart="435.00" departLane="12_0" departPos="5.10" departSpeed="0.00" departDelay="0.00" arrival="583.00" arrivalLane="34_0" arrivalPos="10.00" arrivalSpeed="5.66" duration="148.00" routeLength="785.10" waitSteps="0" timeLoss="8.81" rerouteNo="0" devices="tripinfo_right_43" vType="typeWE" speedFactor="1.00" vaporized=""/>
    <tripinfo id="right_44" depart="460.00" departLane="12_0" departPos="5.10" departSpeed="0.00" departDelay="0.00" arrival="608.00" arrivalLane="34_0" arrivalPos="10.00" arrivalSpeed="5.55" duration="148.00" routeLength="785.10" waitSteps="0" timeLoss="8.98" rerouteNo="0" devices="tripinfo_right_44" vType="typeWE" speedFactor="1.00" vaporized=""/>
    <tripinfo id="right_45" depart="469.00" departLane="12_0" departPos="5.10" departSpeed="0.00" departDelay="0.00" arrival="617.00" arrivalLane="34_0" arrivalPos="10.00" arrivalSpeed="5.59" duration="148.00" routeLength="785.10" waitSteps="0" timeLoss="9.30" rerouteNo="0" devices="tripinfo_right_45" vType="typeWE" speedFactor="1.00" vaporized=""/>
    <tripinfo id="right_46" depart="481.00" departLane="12_0" departPos="5.10" departSpeed="0.00" departDelay="0.00" arrival="629.00" arrivalLane="34_0" arrivalPos="10.00" arrivalSpeed="5.50" duration="148.00" routeLength="785.10" waitSteps="0" timeLoss="9.48" rerouteNo="0" devices="tripinfo_right_46" vType="typeWE" speedFactor="1.00" vaporized=""/>
    <tripinfo id="right_47" depart="493.00" departLane="12_0" departPos="5.10" departSpeed="0.00" departDelay="0.00" arrival="642.00" arrivalLane="34_0" arrivalPos="10.00" arrivalSpeed="5.53" duration="149.00" routeLength="785.10" waitSteps="0" timeLoss="10.47" rerouteNo="0" devices="tripinfo_right_47" vType="typeWE" speedFactor="1.00" vaporized=""/>
    <tripinfo id="right_48" depart="501.00" departLane="12_0" departPos="5.10" departSpeed="0.00" departDelay="0.00" arrival="648.00" arrivalLane="34_0" arrivalPos="10.00" arrivalSpeed="5.33" duration="147.00" routeLength="785.10" waitSteps="0" timeLoss="8.19" rerouteNo="0" devices="tripinfo_right_48" vType="typeWE" speedFactor="1.00" vaporized=""/>
    <tripinfo id="right_49" depart="506.00" departLane="12_0" departPos="5.10" departSpeed="0.00" departDelay="2.00" arrival="654.00" arrivalLane="34_0" arrivalPos="10.00" arrivalSpeed="5.63" duration="148.00" routeLength="785.10" waitSteps="0" timeLoss="8.83" rerouteNo="0" devices="tripinfo_right_49" vType="typeWE" speedFactor="1.00" vaporized=""/>
    <tripinfo id="right_50" depart="511.00" departLane="12_0" departPos="5.10" departSpeed="0.00" departDelay="3.00" arrival="659.00" arrivalLane="34_0" arrivalPos="10.00" arrivalSpeed="5.59" duration="148.00" routeLength="785.10" waitSteps="0" timeLoss="8.61" rerouteNo="0" devices="tripinfo_right_50" vType="typeWE" speedFactor="1.00" vaporized=""/>
    <tripinfo id="right_51" depart="517.00" departLane="12_0" departPos="5.10" departSpeed="0.00" departDelay="0.00" arrival="665.00" arrivalLane="34_0" arrivalPos="10.00" arrivalSpeed="5.44" duration="148.00" routeLength="785.10" waitSteps="0" timeLoss="8.61" rerouteNo="0" devices="tripinfo_right_51" vType="typeWE" speedFactor="1.00" vaporized=""/>
    <tripinfo id="right_52" depart="522.00" departLane="12_0" departPos="5.10" departSpeed="0.00" departDelay="4.00" arrival="670.00" arrivalLane="34_0" arrivalPos="10.00" arrivalSpeed="5.38" duration="148.00" routeLength="785.10" waitSteps="0" timeLoss="9.16" rerouteNo="0" devices="tripinfo_right_52" vType="typeWE" speedFactor="1.00" vaporized=""/>
    <tripinfo id="right_53" depart="528.00" departLane="12_0" departPos="5.10" departSpeed="0.00" departDelay="0.00" arrival="676.00" arrivalLane="34_0" arrivalPos="10.00" arrivalSpeed="5.47" duration="148.00" routeLength="785.10" waitSteps="0" timeLoss="8.90" rerouteNo="0" devices="tripinfo_right_53" vType="typeWE" speedFactor="1.00" vaporized=""/>
    <tripinfo id="right_54" depart="543.00" departLane="12_0" departPos="5.10" departSpeed="0.00" departDelay="0.00" arrival="691.00" arrivalLane="34_0" arrivalPos="10.00" arrivalSpeed="5.48" duration="148.00" routeLength="785.10" waitSteps="0" timeLoss="8.81" rerouteNo="0" devices="tripinfo_right_54" vType="typeWE" speedFactor="1.00" vaporized=""/>
    <tripinfo id="right_55" depart="549.00" departLane="12_0" departPos="5.10" departSpeed="0.00" departDelay="0.00" arrival="697.00" arrivalLane="34_0" arrivalPos="10.00" arrivalSpeed="5.32" duration="148.00" routeLength="785.10" waitSteps="0" timeLoss="9.46" rerouteNo="0" devices="tripinfo_right_55" vType="typeWE" speedFactor="1.00" vaporized=""/>
    <tripinfo id="right_56" depart="583.00" departLane="12_0" departPos="5.10" departSpeed="0.00" departDelay="0.00" arrival="731.00" arrivalLane="34_0" arrivalPos="10.00" arrivalSpeed="5.34" duration="148.00" routeLength="785.10" waitSteps="0" timeLoss="9.29" rerouteNo="0" devices="tripinfo_right_56" vType="typeWE" speedFactor="1.00" vaporized=""/>
    <tripinfo id="right_57" depart="589.00" departLane="12_0" departPos="5.10" departSpeed="0.00" departDelay="0.00" arrival="737.00" arrivalLane="34_0" arrivalPos="10.00" arrivalSpeed="5.62" duration="148.00" routeLength="785.10" waitSteps="0" timeLoss="9.15" rerouteNo="0" devices="tripinfo_right_57" vType="typeWE" speedFactor="1.00" vaporized=""/>
    <tripinfo id="right_58" depart="598.00" departLane="12_0" departPos="5.10" departSpeed="0.00" departDelay="0.00" arrival="746.00" arrivalLane="34_0" arrivalPos="10.00" arrivalSpeed="5.30" duration="148.00" routeLength="785.10" waitSteps="0" timeLoss="9.30" rerouteNo="0" devices="tripinfo_right_58" vType="typeWE" speedFactor="1.00" vaporized=""/>
    <tripinfo id="right_59" depart="603.00" departLane="12_0" departPos="5.10" departSpeed="0.00" departDelay="3.00" arrival="751.00" arrivalLane="34_0" arrivalPos="10.00" arrivalSpeed="5.39" duration="148.00" routeLength="785.10" waitSteps="0" timeLoss="9.07" rerouteNo="0" devices="tripinfo_right_59" vType="typeWE" speedFactor="1.00" vaporized=""/>
    <tripinfo id="right_60" depart="608.00" departLane="12_0" departPos="5.10" departSpeed="0.00" departDelay="0.00" arrival="757.00" arrivalLane="34_0" arrivalPos="10.00" arrivalSpeed="5.57" duration="149.00" routeLength="785.10" waitSteps="0" timeLoss="9.60" rerouteNo="0" devices="tripinfo_right_60" vType="typeWE" speedFactor="1.00" vaporized=""/>
    <tripinfo id="right_61" depart="637.00" departLane="12_0" departPos="5.10" departSpeed="0.00" departDelay="0.00" arrival="785.00" arrivalLane="34_0" arrivalPos="10.00" arrivalSpeed="5.30" duration="148.00" routeLength="785.10" waitSteps="0" timeLoss="9.12" rerouteNo="0" devices="tripinfo_right_61" vType="typeWE" speedFactor="1.00" vaporized=""/>
    <tripinfo id="right_62" depart="651.00" departLane="12_0" departPos="5.10" departSpeed="0.00" departDelay="0.00" arrival="799.00" arrivalLane="34_0" arrivalPos="10.00" arrivalSpeed="5.59" duration="148.00" routeLength="785.10" waitSteps="0" timeLoss="9.27" rerouteNo="0" devices="tripinfo_right_62" vType="typeWE" speedFactor="1.00" vaporized=""/>
    <tripinfo id="right_63" depart="656.00" departLane="12_0" departPos="5.10" departSpeed="0.00" departDelay="0.00" arrival="804.00" arrivalLane="34_0" arrivalPos="10.00" arrivalSpeed="5.55" duration="148.00" routeLength="785.10" waitSteps="0" timeLoss="9.47" rerouteNo="0" devices="tripinfo_right_63" vType="typeWE" speedFactor="1.00" vaporized=""/>
    <tripinfo id="right_64" depart="661.00" departLane="12_0" departPos="5.10" departSpeed="0.00" departDelay="3.00" arrival="809.00" arrivalLane="34_0" arrivalPos="10.00" arrivalSpeed="5.55" duration="148.00" routeLength="785.10" waitSteps="0" timeLoss="9.17" rerouteNo="0" devices="tripinfo_right_64" vType="typeWE" speedFactor="1.00" vaporized=""/>
    <tripinfo id="right_65" depart="683.00" departLane="12_0" departPos="5.10" departSpeed="0.00" departDelay="0.00" arrival="831.00" arrivalLane="34_0" arrivalPos="10.00" arrivalSpeed="5.57" duration="148.00" routeLength="785.10" waitSteps="0" timeLoss="9.06" rerouteNo="0" devices="tripinfo_right_65" vType="typeWE" speedFactor="1.00" vaporized=""/>
    <tripinfo id="right_66" depart="688.00" departLane="12_0" departPos="5.10" departSpeed="0.00" departDelay="4.00" arrival="837.00" arrivalLane="34_0" arrivalPos="10.00" arrivalSpeed="5.34" duration="149.00" routeLength="785.10" waitSteps="0" timeLoss="9.69" rerouteNo="0" devices="tripinfo_right_66" vType="typeWE" speedFactor="1.00" vaporized=""/>
    <tripinfo id="right_67" depart="703.00" departLane="12_0" departPos="5.10" departSpeed="0.00" departDelay="0.00" arrival="851.00" arrivalLane="34_0" arrivalPos="10.00" arrivalSpeed="5.39" duration="148.00" routeLength="785.10" waitSteps="0" timeLoss="8.80" rerouteNo="0" devices="tripinfo_right_67" vType="typeWE" speedFactor="1.00" vaporized=""/>
    <tripinfo id="right_68" depart="715.00" departLane="12_0" departPos="5.10" departSpeed="0.00" departDelay="0.00" arrival="863.00" arrivalLane="34_0" arrivalPos="10.00" arrivalSpeed="5.32" duration="148.00" routeLength="785.10" waitSteps="0" timeLoss="9.36" rerouteNo="0" devices="tripinfo_right_68" vType="typeWE" speedFactor="1.00" vaporized=""/>
    <tripinfo id="right_69" depart="720.00" departLane="12_0" departPos="5.10" departSpeed="0.00" departDelay="4.00" arrival="868.00" arrivalLane="34_0" arrivalPos="10.00" arrivalSpeed="5.55" duration="148.00" routeLength="785.10" waitSteps="0" timeLoss="8.79" rerouteNo="0" devices="tripinfo_right_69" vType="typeWE" speedFactor="1.00" vaporized=""/>
    <tripinfo id="right_70" depart="725.00" departLane="12_0" departPos="5.10" departSpeed="0.00" departDelay="5.00" arrival="874.00" arrivalLane="34_0" arrivalPos="10.00" arrivalSpeed="5.35" duration="149.00" routeLength="785.10" waitSteps="0" timeLoss="9.92" rerouteNo="0" devices="tripinfo_right_70" vType="typeWE" speedFactor="1.00" vaporized=""/>
    <tripinfo id="right_71" depart="730.00" departLane="12_0" departPos="5.10" departSpeed="0.00" departDelay="2.00" arrival="878.00" arrivalLane="34_0" arrivalPos="10.00" arrivalSpeed="5.57" duration="148.00" routeLength="785.10" waitSteps="0" timeLoss="9.22" rerouteNo="0" devices="tripinfo_right_71" vType="typeWE" speedFactor="1.00" vaporized=""/>
    <tripinfo id="right_72" depart="737.00" departLane="12_0" departPos="5.10" departSpeed="0.00" departDelay="0.00" arrival="885.00" arrivalLane="34_0" arrivalPos="10.00" arrivalSpeed="5.53" duration="148.00" routeLength="785.10" waitSteps="0" timeLoss="8.86" rerouteNo="0" devices="tripinfo_right_72" vType="typeWE" speedFactor="1.00" vaporized=""/>
    <tripinfo id="right_73" depart="775.00" departLane="12_0" departPos="5.10" departSpeed="0.00" departDelay="0.00" arrival="923.00" arrivalLane="34_0" arrivalPos="10.00" arrivalSpeed="5.52" duration="148.00" routeLength="785.10" waitSteps="0" timeLoss="9.26" rerouteNo="0" devices="tripinfo_right_73" vType="typeWE" speedFactor="1.00" vaporized=""/>
    <tripinfo id="right_74" depart="817.00" departLane="12_0" departPos="5.10" departSpeed="0.00" departDelay="0.00" arrival="965.00" arrivalLane="34_0" arrivalPos="10.00" arrivalSpeed="5.40" duration="148.00" routeLength="785.10" waitSteps="0" timeLoss="9.07" rerouteNo="0" devices="tripinfo_right_74" vType="typeWE" speedFactor="1.00" vaporized=""/>
    <tripinfo id="right_75" depart="826.00" departLane="12_0" departPos="5.10" departSpeed="0.00" departDelay="0.00" arrival="974.00" arrivalLane="34_0" arrivalPos="10.00" arrivalSpeed="5.37" duration="148.00" routeLength="785.10" waitSteps="0" timeLoss="9.12" rerouteNo="0" devices="tripinfo_right_75" vType="typeWE" speedFactor="1.00" vaporized=""/>
    <tripinfo id="right_76" depart="851.00" departLane="12_0" departPos="5.10" departSpeed="0.00" departDelay="0.00" arrival="999.00" arrivalLane="34_0" arrivalPos="10.00" arrivalSpeed="5.46" duration="148.00" routeLength="785.10" waitSteps="0" timeLoss="8.92" rerouteNo="0" devices="tripinfo_right_76" vType="typeWE" speedFactor="1.00" vaporized=""/>
    <tripinfo id="right_77" depart="856.00" departLane="12_0" departPos="5.10" departSpeed="0.00" departDelay="4.00" arrival="1005.00" arrivalLane="34_0" arrivalPos="10.00" arrivalSpeed="5.59" duration="149.00" routeLength="785.10" waitSteps="0" timeLoss="9.59" rerouteNo="0" devices="tripinfo_right_77" vType="typeWE" speedFactor="1.00" vaporized=""/>
    <tripinfo id="right_78" depart="861.00" departLane="12_0" departPos="5.10" departSpeed="0.00" departDelay="3.00" arrival="1009.00" arrivalLane="34_0" arrivalPos="10.00" arrivalSpeed="5.56" duration="148.00" routeLength="785.10" waitSteps="0" timeLoss="9.47" rerouteNo="0" devices="tripinfo_right_78" vType="typeWE" speedFactor="1.00" vaporized=""/>
    <tripinfo id="right_79" depart="866.00" departLane="12_0" departPos="5.10" departSpeed="0.00" departDelay="2.00" arrival="1014.00" arrivalLane="34_0" arrivalPos="10.00" arrivalSpeed="5.58" duration="148.00" routeLength="785.10" waitSteps="0" timeLoss="8.76" rerouteNo="0" devices="tripinfo_right_79" vType="typeWE" speedFactor="1.00" vaporized=""/>
    <tripinfo id="right_80" depart="873.00" departLane="12_0" departPos="5.10" departSpeed="0.00" departDelay="0.00" arrival="1022.00" arrivalLane="34_0" arrivalPos="10.00" arrivalSpeed="5.44" duration="149.00" routeLength="785.10" waitSteps="0" timeLoss="9.96" rerouteNo="0" devices="tripinfo_right_80" vType="typeWE" speedFactor="1.00" vaporized=""/>
    <tripinfo id="right_81" depart="882.00" departLane="12_0" departPos="5.10" departSpeed="0.00" departDelay="0.00" arrival="1030.00" arrivalLane="34_0" arrivalPos="10.00" arrivalSpeed="5.45" duration="148.00" routeLength="785.10" waitSteps="0" timeLoss="9.16" rerouteNo="0" devices="tripinfo_right_81" vType="typeWE" speedFactor="1.00" vaporized=""/>
</tripinfos>
